#     Step Nr.          Time[fs]        Kin.[a.u.]          Temp[K]            Pot.[a.u.]        Cons Qty[a.u.]        UsedTime[s]
         0            0.000000         1.032460972      1050.000000000     -5252.270968874     -5251.236845323         0.000000000
         1            2.000000         1.024169045      1041.567212816     -5252.262779703     -5251.236783073       549.103385597
         2            4.000000         1.000225683      1017.217110463     -5252.238865354     -5251.236649738        75.174283445
         3            6.000000         0.962585755       978.937770912     -5252.201197068     -5251.236464219        75.276107159
         4            8.000000         0.914139020       929.668042256     -5252.152678756     -5251.236242883        80.904220160
         5           10.000000         0.858349805       872.931103351     -5252.096800812     -5251.236013521        81.651709082
         6           12.000000         0.798817071       812.387051503     -5252.037189382     -5251.236577364       159.194752857
         7           14.000000         0.738788139       751.338371673     -5251.977118187     -5251.236413665        91.375151295
         8           16.000000         0.680804621       692.369853226     -5251.919140037     -5251.236308521        74.983826838
         9           18.000000         0.626572804       637.216768321     -5251.864949209     -5251.236249504        80.199529896
        10           20.000000         0.577060761       586.863634428     -5251.815498133     -5251.236220285        80.784068426
        12           24.000000         0.493853772       502.243159679     -5251.732424590     -5251.236740696        32.858954906
        14           28.000000         0.432695037       440.045484111     -5251.671400687     -5251.236738308        27.433015823
        16           32.000000         0.393161626       399.840496442     -5251.632027100     -5251.236783473        27.735265017
        18           36.000000         0.372419740       378.746255003     -5251.611458500     -5251.236857986        27.595964909
        20           40.000000         0.366530714       372.757188783     -5251.605688750     -5251.236889422        27.560681105
        22           44.000000         0.374105358       380.460508298     -5251.613310180     -5251.236855805        30.051438093
        24           48.000000         0.396871757       403.613653710     -5251.636163434     -5251.236866827        30.245694876
        26           52.000000         0.433394501       440.756831162     -5251.672931132     -5251.237038189        30.459151983
        28           56.000000         0.473083704       481.120257471     -5251.712966043     -5251.237311773        30.349794149
        30           60.000000         0.499645958       508.133741041     -5251.739800557     -5251.237514914        24.879560947
        32           64.000000         0.501394531       509.912017427     -5251.741597413     -5251.237500296        27.537692785
        34           68.000000         0.479867402       488.019195006     -5251.719865343     -5251.237241847        27.776221991
        36           72.000000         0.450825379       458.483817333     -5251.690521254     -5251.236897118        30.708732128
        38           76.000000         0.434659269       442.043083718     -5251.674223493     -5251.236732931        30.172772884
        40           80.000000         0.441288281       448.784707072     -5251.680988006     -5251.236844343        30.451332092
        42           84.000000         0.464711841       472.606177275     -5251.704637048     -5251.237053156        27.666295052
        44           88.000000         0.492159361       500.519964334     -5251.732235388     -5251.237194755        27.700527906
        46           92.000000         0.513844268       522.573246025     -5251.753982874     -5251.237256058        25.307757139
        48           96.000000         0.524984022       533.902237313     -5251.765126205     -5251.237266678        27.743475199
        50          100.000000         0.524516531       533.426804441     -5251.764604759     -5251.237228106        24.907866955
        52          104.000000         0.514887037       523.633728843     -5251.754853651     -5251.237129913        30.489390850
        54          108.000000         0.502179417       510.710237436     -5251.741992646     -5251.237007591        30.650192022
        56          112.000000         0.493622127       502.007579131     -5251.733339446     -5251.236950258        30.224400997
        58          116.000000         0.492491809       500.858060339     -5251.732218440     -5251.237006015        30.203485966
        60          120.000000         0.495542240       503.960309902     -5251.735328074     -5251.237120077        25.086673975
        62          124.000000         0.496153611       504.582066732     -5251.735961396     -5251.237205414        24.753923893
        64          128.000000         0.489366453       497.679611893     -5251.729113484     -5251.237215902        24.988981009
        66          132.000000         0.474790333       482.855878499     -5251.714392168     -5251.237148538        27.520190954
        68          136.000000         0.456974975       464.737880404     -5251.696370896     -5251.237025859        27.766633987
        70          140.000000         0.443769909       451.308492369     -5251.682959197     -5251.236907656        30.248565912
        72          144.000000         0.442326599       449.840663566     -5251.681410063     -5251.236896875        30.462496996
        74          148.000000         0.453135866       460.833554133     -5251.692253914     -5251.237035796        30.234951973
        76          152.000000         0.468169517       476.122591024     -5251.707338833     -5251.237202899        30.469660044
        78          156.000000         0.477465836       485.576831808     -5251.716578284     -5251.237273389        27.528990030
        80          160.000000         0.476453123       484.546915565     -5251.715396371     -5251.237240955        30.455773115
        82          164.000000         0.466961472       474.894023473     -5251.705666155     -5251.237145776        30.079632998
        84          168.000000         0.455105960       462.837115227     -5251.693530336     -5251.237013616        30.318700075
        86          172.000000         0.449029207       456.657132756     -5251.687206841     -5251.236920132        30.232053995
        88          176.000000         0.454070953       461.784525755     -5251.692134171     -5251.236966992        30.288046122
        90          180.000000         0.467380952       475.320629786     -5251.705420845     -5251.237116726        30.418431044
        92          184.000000         0.480189387       488.346649443     -5251.718139636     -5251.237213650        24.982157946
        94          188.000000         0.486335240       494.596905458     -5251.724056615     -5251.237183511        30.500350952
        96          192.000000         0.486790276       495.059671879     -5251.724206622     -5251.237086799        30.388612986
        98          196.000000         0.486580768       494.846604639     -5251.723720798     -5251.237027042        30.135436058
       100          200.000000         0.489224113       497.534853738     -5251.726124894     -5251.237013187        30.662767887
       102          204.000000         0.495743028       504.164509118     -5251.732401613     -5251.237006878        25.015452862
       104          208.000000         0.506160922       514.759378184     -5251.742590154     -5251.237025911        30.286276817
       106          212.000000         0.518983133       527.799407506     -5251.755194160     -5251.237070390        25.158123970
       108          216.000000         0.531350637       540.377005469     -5251.767324157     -5251.237110574        27.702420950
       110          220.000000         0.540663880       549.848458583     -5251.776366828     -5251.237131913        27.778656006
       112          224.000000         0.545673100       554.942773527     -5251.781069254     -5251.237129316        27.486690044
       114          228.000000         0.546792938       556.081634648     -5251.781848900     -5251.237103322        30.367806196
       116          232.000000         0.546046391       555.322405195     -5251.780731657     -5251.237055128        27.625198126
       118          236.000000         0.546706564       555.993793177     -5251.781023930     -5251.237017872        30.680565834
       120          240.000000         0.550813838       560.170839735     -5251.784848636     -5251.237075704        30.476035118
       122          244.000000         0.554929193       564.356104285     -5251.788748710     -5251.237211926        27.456742048
       124          248.000000         0.551596053       560.966343032     -5251.785107925     -5251.237264527        28.056515932
       126          252.000000         0.537745879       546.880887120     -5251.770802785     -5251.237172303        27.913967133
       128          256.000000         0.517897201       526.695028056     -5251.750485277     -5251.237062803        30.439265966
       130          260.000000         0.498091907       506.553289920     -5251.730274372     -5251.237010890        24.783665895
       132          264.000000         0.481544246       489.724523787     -5251.713350325     -5251.236983510        27.695320129
       134          268.000000         0.469793411       477.774070778     -5251.701230264     -5251.236961185        27.654057980
       136          272.000000         0.464091079       471.974869317     -5251.695157361     -5251.236939127        27.710612059
       138          276.000000         0.465770594       473.682915684     -5251.696464162     -5251.236921416        27.738799095
       140          280.000000         0.475748353       483.830172795     -5251.706096487     -5251.236943535        27.614851952
       142          284.000000         0.492605965       500.974154650     -5251.722650071     -5251.237025856        28.018657923
       144          288.000000         0.511846368       520.541405750     -5251.741565405     -5251.237109974        27.804123163
       146          292.000000         0.528992151       537.978454962     -5251.758298193     -5251.237129250        27.666715145
       148          296.000000         0.543064899       552.290265390     -5251.771888555     -5251.237100061        30.376664162
       150          300.000000         0.555633542       565.072418960     -5251.783986481     -5251.237101645        30.405009985
       152          304.000000         0.566635602       576.261377373     -5251.794555489     -5251.237158949        30.240754128
       154          308.000000         0.573089892       582.825310460     -5251.800541569     -5251.237196601        27.694535971
       156          312.000000         0.572861279       582.592813904     -5251.799768604     -5251.237168457        30.726281881
       158          316.000000         0.567208276       576.843780262     -5251.793546397     -5251.237120128        27.593950033
       160          320.000000         0.558663247       568.153590900     -5251.784449736     -5251.237090149        25.414159060
       162          324.000000         0.549002299       558.328527132     -5251.774241542     -5251.237063381        30.560227871
       164          328.000000         0.539855500       549.026345697     -5251.764538963     -5251.237026436        30.362417936
       166          332.000000         0.533225094       542.283305433     -5251.757366621     -5251.237002975        30.267587900
       168          336.000000         0.530267827       539.275801190     -5251.753893859     -5251.237008536        30.392482996
       170          340.000000         0.530570060       539.583168316     -5251.753678991     -5251.237018427        30.445834875
       172          344.000000         0.533206036       542.263923900     -5251.755792841     -5251.237031919        30.681068897
       174          348.000000         0.536900648       546.021298087     -5251.758974415     -5251.237064813        30.426929951
       176          352.000000         0.539695720       548.863851535     -5251.761223203     -5251.237074786        30.492722988
       178          356.000000         0.541030116       550.220915391     -5251.761953259     -5251.237035553        30.624289036
       180          360.000000         0.542883715       552.106003485     -5251.763205040     -5251.237007005        27.608741045
       182          364.000000         0.546631333       555.917284452     -5251.766409715     -5251.237046866        25.061959028
       184          368.000000         0.550112465       559.457552397     -5251.769364192     -5251.237113551        30.184016943
       186          372.000000         0.549666122       559.003626727     -5251.768337304     -5251.237134454        25.203252077
       188          376.000000         0.544027766       553.269488526     -5251.762062558     -5251.237102258        27.676721096
       190          380.000000         0.534961524       544.049233115     -5251.752354041     -5251.237061868        27.593947172
       192          384.000000         0.525105406       534.025683039     -5251.741872353     -5251.237033362        27.827199221
       194          388.000000         0.516623128       525.399311468     -5251.732773609     -5251.237009319        30.580474854
       196          392.000000         0.511285638       519.971151283     -5251.726832965     -5251.236996364        27.589341879
       198          396.000000         0.510034487       518.698745357     -5251.724998242     -5251.237004842        30.666260958
       200          400.000000         0.512469379       521.175000921     -5251.726855384     -5251.237025436        30.792675018
       202          404.000000         0.517365641       526.154438121     -5251.731167084     -5251.237049008        25.036634922
       204          408.000000         0.523309764       532.199537832     -5251.736511273     -5251.237068927        30.200150967
       206          412.000000         0.529157271       538.146379500     -5251.741740448     -5251.237082566        30.328664064
       208          416.000000         0.534206367       543.281247643     -5251.746151130     -5251.237087518        30.740915060
       210          420.000000         0.538335186       547.480205729     -5251.749614038     -5251.237075107        30.632935047
       212          424.000000         0.541952364       551.158830557     -5251.752581780     -5251.237088277        30.380777836
       214          428.000000         0.543843630       553.082224403     -5251.753861682     -5251.237147297        27.464792967
       216          432.000000         0.540490359       549.671989353     -5251.749857584     -5251.237170204        25.220201969
       218          436.000000         0.530386751       539.396745820     -5251.739013906     -5251.237099238        27.969578028
       220          440.000000         0.517122134       525.906794447     -5251.724986064     -5251.236993785        27.769577980
       222          444.000000         0.506423514       515.026431288     -5251.713587987     -5251.236940298        25.142359018
       224          448.000000         0.501363270       509.880226076     -5251.707901643     -5251.236953714        27.577971935
       226          452.000000         0.501285164       509.800792673     -5251.707223076     -5251.236993116        27.694143057
       228          456.000000         0.503969947       512.531183910     -5251.709289567     -5251.237019809        27.885666132
       230          460.000000         0.507841925       516.468937705     -5251.712526981     -5251.237037600        27.670721054
       232          464.000000         0.511692981       520.385413663     -5251.715761872     -5251.237081761        25.282277822
       234          468.000000         0.513372055       522.093011335     -5251.716802342     -5251.237109873        30.343631029
       236          472.000000         0.511874883       520.570406080     -5251.714598950     -5251.237072837        30.544856071
       238          476.000000         0.509516026       518.171477654     -5251.711521361     -5251.237022718        30.488461018
       240          480.000000         0.509455307       518.109726365     -5251.710770112     -5251.237001075        30.822175980
       242          484.000000         0.513314821       522.034804985     -5251.713958994     -5251.237003640        30.405625105
       244          488.000000         0.520855170       529.703246371     -5251.720860135     -5251.237046895        27.871607065
       246          492.000000         0.529369936       538.362657462     -5251.728749112     -5251.237115848        30.582811832
       248          496.000000         0.534872693       543.958893199     -5251.733566691     -5251.237136014        25.027319193
       250          500.000000         0.536035297       545.141246807     -5251.733961035     -5251.237078196        27.731826067
       252          504.000000         0.535568045       544.666057239     -5251.732728913     -5251.237024478        30.196141005
       254          508.000000         0.536105795       545.212942930     -5251.732559129     -5251.237028417        30.460441113
       256          512.000000         0.537260705       546.387471366     -5251.733020953     -5251.237048234        27.663369894
       258          516.000000         0.537572487       546.704550400     -5251.732610904     -5251.237040336        27.791680098
       260          520.000000         0.537068333       546.191831736     -5251.731354851     -5251.237001941        27.879883051
       262          524.000000         0.537461134       546.591305736     -5251.731009958     -5251.236977128        27.612356186
       264          528.000000         0.539844567       549.015226817     -5251.732705765     -5251.237003667        27.633196831
       266          532.000000         0.542810726       552.031773892     -5251.734996160     -5251.237045037        24.943232059
       268          536.000000         0.544338671       553.585675784     -5251.735801578     -5251.237041719        30.670881033
       270          540.000000         0.544791476       554.046172679     -5251.735505041     -5251.237011576        30.262364149
       272          544.000000         0.545944654       555.218940283     -5251.735934444     -5251.237006587        30.618046999
       274          548.000000         0.548253545       557.567053404     -5251.737542039     -5251.237024871        30.500603914
       276          552.000000         0.550746140       560.101991545     -5251.739328598     -5251.237039954        27.679822922
       278          556.000000         0.552323680       561.706329939     -5251.740199040     -5251.237054817        30.152781010
       280          560.000000         0.551762335       561.135449530     -5251.738952152     -5251.237089962        25.069144011
       282          564.000000         0.547080865       556.374452656     -5251.733576689     -5251.237111230        30.516438007
       284          568.000000         0.537481917       546.612441655     -5251.723230983     -5251.237068188        30.500152826
       286          572.000000         0.525683371       534.613466703     -5251.710667921     -5251.236991058        27.901015997
       288          576.000000         0.516144088       524.912134505     -5251.700413982     -5251.236947679        30.331084013
       290          580.000000         0.511584257       520.274842444     -5251.695187213     -5251.236940903        30.626096010
       292          584.000000         0.512489874       521.195843893     -5251.695436928     -5251.236940890        24.957813978
       294          588.000000         0.518520503       527.328918549     -5251.700820987     -5251.236952643        24.937614918
       296          592.000000         0.528489822       537.467592719     -5251.710161719     -5251.236990479        27.806094885
       298          596.000000         0.539849554       549.020299291     -5251.720887959     -5251.237034670        27.907945871
       300          600.000000         0.549888866       559.230154510     -5251.730255014     -5251.237050964        27.572026014
       302          604.000000         0.557443822       566.913451626     -5251.737104697     -5251.237042215        27.545156956
       304          608.000000         0.562834127       572.395324132     -5251.741791709     -5251.237040163        27.732251167
       306          612.000000         0.566148892       575.766399393     -5251.744426847     -5251.237063716        27.474565029
       308          616.000000         0.566111638       575.728512610     -5251.743725341     -5251.237101178        27.727437973
       310          620.000000         0.560766715       570.292791995     -5251.737702431     -5251.237118039        25.292130947
       312          624.000000         0.549699356       559.037425758     -5251.725901717     -5251.237065775        30.315444946
       314          628.000000         0.536509707       545.623715684     -5251.711937714     -5251.236953888        24.847271919
       316          632.000000         0.527725630       536.690418259     -5251.702448402     -5251.236894183        27.867672920
       318          636.000000         0.526994973       535.947349610     -5251.701115779     -5251.236929014        30.244885921
       320          640.000000         0.532888231       541.940720063     -5251.706418376     -5251.236975573        30.499600172
       322          644.000000         0.542440136       551.654888581     -5251.715378955     -5251.237027933        30.706366062
       324          648.000000         0.551934355       561.310392012     -5251.724301802     -5251.237108730        30.454391956
       326          652.000000         0.556277402       565.727216565     -5251.728049490     -5251.237170731        27.606283903
       328          656.000000         0.551454712       560.822600750     -5251.722574724     -5251.237172426        25.025969982
       330          660.000000         0.536975921       546.097850309     -5251.707398527     -5251.237113983        27.716702938
       332          664.000000         0.516282758       525.053159610     -5251.685978625     -5251.237002233        30.472417116
       334          668.000000         0.495931921       504.356611241     -5251.664929119     -5251.236891561        27.589707851
       336          672.000000         0.482238314       490.430382990     -5251.650632621     -5251.236854438        30.642660856
       338          676.000000         0.477507767       485.619475018     -5251.645372133     -5251.236877763        30.307625055
       340          680.000000         0.480417440       488.578576000     -5251.647765577     -5251.236912168        24.937757969
       342          684.000000         0.488696910       496.998694354     -5251.655515675     -5251.236938250        30.522352934
       344          688.000000         0.500502074       509.004399945     -5251.666774618     -5251.236957208        25.013092995
       346          692.000000         0.514386849       523.125043409     -5251.680115525     -5251.236991213        30.287194967
       348          696.000000         0.528222090       537.195312513     -5251.693421549     -5251.237053531        25.023911953
       350          700.000000         0.538782398       547.935014425     -5251.703416341     -5251.237091060        27.675351143
       352          704.000000         0.544733004       553.986706578     -5251.708702374     -5251.237036085        27.821809769
       354          708.000000         0.549600597       558.936988285     -5251.712880604     -5251.236959256        27.647490025
       356          712.000000         0.557761789       567.236819894     -5251.720446080     -5251.236980388        30.318081856
       358          716.000000         0.568305960       577.960110625     -5251.730446984     -5251.237061732        30.477600098
       360          720.000000         0.576539407       586.333423847     -5251.738104452     -5251.237118050        27.636271000
       362          724.000000         0.579144948       588.983226921     -5251.740053543     -5251.237096830        30.366056919
       364          728.000000         0.577420405       587.229388659     -5251.737604287     -5251.237004465        27.901877880
       366          732.000000         0.576414272       586.206164064     -5251.735911727     -5251.236945559        30.555774927
       368          736.000000         0.579443221       589.286567499     -5251.738337436     -5251.236968015        30.287206888
       370          740.000000         0.585479257       595.425141137     -5251.743781323     -5251.237003793        30.533915997
       372          744.000000         0.592158356       602.217702079     -5251.749853909     -5251.237029339        27.705399990
       374          748.000000         0.597496400       607.646426417     -5251.754578568     -5251.237051679        27.781201124
       376          752.000000         0.599911865       610.102924305     -5251.756363672     -5251.237058357        27.786715984
       378          756.000000         0.598687982       608.858250217     -5251.754505053     -5251.237058474        27.843885899
       380          760.000000         0.593420168       603.500948927     -5251.748619432     -5251.237069439        27.715050936
       382          764.000000         0.583352949       593.262711534     -5251.737924202     -5251.237059714        27.828090906
       384          768.000000         0.569058516       578.725451334     -5251.722962837     -5251.236996038        27.678887844
       386          772.000000         0.554019342       563.430797143     -5251.707254028     -5251.236912297        28.217108965
       388          776.000000         0.543017975       552.242543327     -5251.695628109     -5251.236858436        27.910510063
       390          780.000000         0.539239198       548.399574307     -5251.691288644     -5251.236859598        27.751785994
       392          784.000000         0.542753315       551.973387920     -5251.694290752     -5251.236908514        25.119343996
       394          788.000000         0.550971618       560.331300405     -5251.702007015     -5251.236972847        27.632323027
       396          792.000000         0.560563564       570.086189749     -5251.711067330     -5251.237016089        24.953485012
       398          796.000000         0.569470574       579.144508965     -5251.719400903     -5251.237026156        30.711209059
       400          800.000000         0.577420514       587.229498706     -5251.726760346     -5251.237026768        30.967176914
       402          804.000000         0.584478171       594.407049231     -5251.733239860     -5251.237046358        30.538154840
       404          808.000000         0.589830187       599.849982698     -5251.737981728     -5251.237039210        30.345971107
       406          812.000000         0.593836478       603.924331372     -5251.741335695     -5251.236993408        30.598843098
       408          816.000000         0.598233223       608.395765658     -5251.745131054     -5251.237001625        30.251112938
       410          820.000000         0.601853943       612.077993569     -5251.748213896     -5251.237076535        30.508615017
       412          824.000000         0.600156358       610.351570444     -5251.745951553     -5251.237124762        28.160408020
       414          828.000000         0.590188935       600.214825236     -5251.735343001     -5251.237089774        27.943130016
       416          832.000000         0.573774870       583.521924836     -5251.718250760     -5251.237003414        30.516953945
       418          836.000000         0.556056869       565.502937497     -5251.699873249     -5251.236917747        27.893336058
       420          840.000000         0.542303273       551.515700648     -5251.685517002     -5251.236872798        30.486063957
       422          844.000000         0.535257992       544.350737881     -5251.677941186     -5251.236889764        26.452131987
       424          848.000000         0.533887672       542.957138867     -5251.676083522     -5251.236946430        25.398157120
       426          852.000000         0.534847062       543.932826652     -5251.676536227     -5251.236984475        27.865077019
       428          856.000000         0.535585812       544.684125919     -5251.676736042     -5251.236992001        27.941122770
       430          860.000000         0.535342025       544.436198097     -5251.675941613     -5251.236988907        27.937999010
       432          864.000000         0.534399438       543.477598251     -5251.674426888     -5251.236964550        27.905632019
       434          868.000000         0.534587244       543.668595124     -5251.674009685     -5251.236907718        28.015640020
       436          872.000000         0.539246643       548.407146178     -5251.678093655     -5251.236883774        27.811712027
       438          876.000000         0.549657608       558.994968506     -5251.688005544     -5251.236945024        25.349314928
       440          880.000000         0.562447092       572.001714393     -5251.700308563     -5251.237032099        30.260021925
       442          884.000000         0.572652013       582.379993316     -5251.709969166     -5251.237074258        28.018573046
       444          888.000000         0.577650602       587.463496101     -5251.714370731     -5251.237072341        30.619555950